var element_data = {
    "wiki": "https://en.wikipedia.org/wiki/Barium",
    "video": "https://www.youtube.com/watch?v=4AhZ8503WPs&list=PL7A1F4CF36C085DE1&index=56",
    "image": "Barium/barium.jpg",
    "species": "ALKALINE EARTH METALS",
    "symbol": "Ba",
    "latin_name": "Barium",
    "english_name": "Barium",
    "year_discovered": "1774",
    "discovered_by": "Humphry Davy",
    "Electron_shell": [
        {
            "K": 2
        },
        {
            "L": 8
        },
        {
            "M": 18
        },
        {
            "N": 18
        },
        {
            "O": 8
        },
        {
            "P": 2
        },
        {
            "Q": 0
        },
        {
            "R": 0
        }
    ],
    "epn_no": [
        {
            "electrons": 56,
        },
        {
            "protons": 56,
        },
        {
            "neutrons": 81
        }
    ],
    "atomic_number": 56,
    "atomic_weight": "137.327 (g/mol)",
    "density": "3.5 (g/cm³)",
    "melting_point": "727 °C = 1340.60 °F = 1000.15 K",
    "boiling_point": "1897 °C = 3446.60 °F = 2170.15 K",
    "valence_electrons": "2",
    "period": 6,
    "group": "II A",
    "block": "s-block",
    "emission_spectrum": "Barium/Ba.gif",
    "phase": "Solid",
    "phase_icon": "----",
    "fusion_heat": "8 (kJ &middot K)",
    "specific_heat": "205 J/(kg &middot; K)",
    "thermal_expansion": "20.6 &middot; 10<sup>-6</sup>°C<sup>-1</sup>)",
    "vaporization_heat": "140 kJ &middot; mol",
    "electron_configuration": "[Kr] 3d<sup>10</sup>",
    "oxidation_state": "+1, +2",
    "ion_charge": "Ba<sup>2+</sup>",
    "ionization_potential": "5.19 ev",
    "atomic_radius": "222 (pm)",
    "covalent_radius": "198 (pm)",
    "van_der_waals_radius": "268 (pm)",
    "electrical_conductivity": "2.9 &middot; 10<sup>6</sup>",
    "electrical_type": "Conductor", 
    "magnetic_type": "Paramagnetic",
    "volume_susceptibility": "-0.00003966",
    "mass_susceptibility": "-0.0000000113",
    "molar_susceptibility": "1.552 &middot; 10<sup>-9</sup> m<sup>3</sup>/mol",
    "resistivity": "3.5 &middot; 10<sup>-7</sup> m\u03A9",
    "superconducting_point": "----",
    "lattice_structure": "Barium/Lattice_body_centered_cubic.svg.png",
    "crystal_structure": "Body-centered cubic",
    "grid": "a=5.020 \u212B; α=54.17° ",
    "attitude": "----",
    "debye_temperature": "11.85 °C = 53.33 °F = 285 K",
    "space_group_name": "R_3m",
    "space_group_number": "166",
    "CAS_number": "CAS7440-38-2",
    "CID_number": "CID5359596",
    "RTEC_number": "RTECSCG0525000",
    "brinell_hardness": "1440 MPa",
    "mohs_hardness": "3.5",
    "vickers_hardness": "----",
    "bulk_modulus": "22 GPa",
    "Young_modulus": "8 GPa",
    "liquid_density": "5.22 (g/cm<sup>3</sup>)",
    "molar_volume": "13.1 (cm<sup>3</sup>/mol)",
    "poisson_ratio": "----",
    "shear_modulus": "---- GPa",
    "sound_speed": "319 m/s",
    "refractive_index": "1.001552",
    "thermal_conductivity": "50 W/mK",
    "electronegative": "Pauling Scale 2.18",
    "electron_affinity": "78 KJ/mol",
    "radioactivity": "no",
    "half_life": "\u221E",
    "life_time": "\u221E",
    "barn": "4.3 b",
    "hazard_block": [
        {
            "red": "2"
        },
        {
            "yellow": "-"
        },
        {
            "blue": "3"
        },
        {
            "white": "-"
        }
    ],
    "fire_hazard": "Below 93.3 °C",
    "health_hazard":"Extreme danger",
    "reactivity": "----",
    "specific": "----",
    "universe_contains": "8 &middot; 10<sup>-7</sup> %",
    "sun_contains": "2.3 &middot; 10<sup>-7</sup> %",
    "oceans_contains": "5 &middot; 10<sup>-6</sup> %",
    "human_body_contains": "5 &middot; 10<sup>-6</sup> %",
    "earth_crust_contains": "0.00021 %",
    "meteorites_contains": "0.00018 %",
    "start_isotope_number": 60,
    "stop_isotope_number": 66,
    "half_life_number": ["-", "-", "-", "-", "40 ms", "170 ms", "95.77 ms"],
    "iso_weight": [59.99313, 60.98062, 61.97320, 62.96369, 63.95757, 64.94956, 65.94471]
}